! Sonnet Data File
! From: em Version : 17.56
! From Project: aaaa
! Data is De-embedded 
! Data File Written: 02/20/2023 16:19:38
!< HDATE 02/20/2023 16:19:08
!< MDATE 02/20/2023 16:19:08
# GHZ S MA R 50.00000
0.010000000000000 0.3328270250178 179.99559783001 0.6664134961114 -2.626533445e-3 0.6664134961133 -2.626524060e-3
                  0.6664134961114 -2.626534788e-3 0.3327987801564 179.99412010052 0.6663852510175 -3.364471374e-3
                  0.6664134961139 -2.626524066e-3 0.6663852510180 -3.364471671e-3 0.3327987801591 179.99412012050
0.200000000000000 0.3328215691010 179.91223330924 0.6664104055190 -0.052461330423 0.6664104057838 -0.052461337057
                  0.6664104055187 -0.052461330397 0.3327926951151 179.88283321565 0.6663814386019 -0.067142929215
                  0.6664104057840 -0.052461336963 0.6663814386023 -0.067142929253 0.3327926953879 179.88283320192
0.400000000000000 0.3328076360285 179.82556239179 0.6664027950166 -0.104660468374 0.6664031730951 -0.104617451783
                  0.6664027950166 -0.104660468374 0.3327768118362 179.76690158500 0.6663718922374 -0.133926625636
                  0.6664031730951 -0.104617451783 0.6663718922374 -0.133926625636 0.3327775179150 179.76695973279
0.600000000000000 0.3327883528010 179.73970254069 0.6663927354809 -0.156631467398 0.6663927370389 -0.156631584306
                  0.6663927354809 -0.156631467407 0.3327563489422 179.65191276016 0.6663599168566 -0.200467937254
                  0.6663927370391 -0.156631584317 0.6663599168567 -0.200467937241 0.3327563505723 179.65191252567
0.800000000000000 0.3327671035131 179.65474377246 0.6663813305459 -0.208368158752 0.6663817807117 -0.208452080964
                  0.6663813305459 -0.208368158752 0.3327337971503 179.53787711081 0.6663466112110 -0.266761403223
                  0.6663817807117 -0.208452080964 0.6663466112110 -0.266761403223 0.3327323864585 179.53793640448
1.000000000000000 0.3327458383953 179.57066070115 0.6663698603598 -0.259912756069 0.6663705235943 -0.260000564513
                  0.6663698603598 -0.259912756069 0.3327110971697 179.42472964854 0.6663329216229 -0.332807571002
                  0.6663705235943 -0.260000564513 0.6663329216229 -0.332807571002 0.3327090391400 179.42496237410
1.200000000000000 0.3327254474376 179.48724386919 0.6663587519418 -0.311302022666 0.6663594833103 -0.311345090147
                  0.6663587519418 -0.311302022666 0.3326892776848 179.31232158374 0.6663195121641 -0.398638068356
                  0.6663594833103 -0.311345090147 0.6663195121641 -0.398638068356 0.3326876107507 179.31267822164
1.400000000000000 0.3327060374412 179.40431191715 0.6663480815451 -0.362566727184 0.6663487674483 -0.362554747778
                  0.6663480815451 -0.362566727184 0.3326687053430 179.20049851948 0.6663066970101 -0.464294403780
                  0.6663487674483 -0.362554747778 0.6663066970101 -0.464294403780 0.3326680798020 179.20084963908
1.600000000000000 0.3326872076344 179.32173112781 0.6663377061761 -0.413727835136 0.6663381848405 -0.413689478110
                  0.6663377061761 -0.413727835136 0.3326492833971 179.08912585644 0.6662945154357 -0.529818186919
                  0.6663381848405 -0.413689478110 0.6662945154357 -0.529818186919 0.3326495537952 179.08933794725
1.800000000000000 0.3326682606368 179.23941667903 0.6663273567277 -0.464796382020 0.6663273583803 -0.464797101338
                  0.6663273567278 -0.464796382028 0.3326306187270 178.97809742044 0.6662828148638 -0.595246419646
                  0.6663273583804 -0.464797101335 0.6662828148638 -0.595246419642 0.3326306210891 178.97809597666
2.000000000000000 0.3326490827669 179.15730550674 0.6663169746367 -0.515803907785 0.6663161654835 -0.515874130583
                  0.6663169746367 -0.515803907785 0.3326124165093 178.86728668518 0.6662713297897 -0.660619217734
                  0.6663161654835 -0.515874130583 0.6662713297897 -0.660619217734 0.3326111696367 178.86709858468
2.200000000000000 0.3326297845560 179.07532976761 0.6663064573580 -0.566790608781 0.6663047568979 -0.566899636539
                  0.6663064573580 -0.566790608781 0.3325941043242 178.75656262133 0.6662595310804 -0.725975116035
                  0.6663047568979 -0.566899636539 0.6662595310804 -0.725975116035 0.3325917665151 178.75626170343
2.400000000000000 0.3326099910089 178.99345760463 0.6662955051707 -0.617764616069 0.6662930980770 -0.617882364458
                  0.6662955051707 -0.617764616069 0.3325749592805 178.64588012530 0.6662469286242 -0.791328817891
                  0.6662930980770 -0.617882364458 0.6662469286242 -0.791328817891 0.3325719230637 178.64554227108
2.600000000000000 0.3325894965006 178.91168536355 0.6662839456387 -0.668724523974 0.6662811900141 -0.668826640709
                  0.6662839456387 -0.668724523974 0.3325545841647 178.53524186147 0.6662332589511 -0.856679009901
                  0.6662811900141 -0.668826640709 0.6662332589511 -0.856679009901 0.3325513607428 178.53493139049
2.800000000000000 0.3325682702451 178.83002984473 0.6662717353727 -0.719662102929 0.6662690766520 -0.719733303098
                  0.6662717353727 -0.719662102929 0.3325329123874 178.42468434559 0.6662184918601 -0.922013020169
                  0.6662690766520 -0.719733303098 0.6662184918601 -0.922013020169 0.3325300258787 178.42444574065
3.000000000000000 0.3325464565065 178.74852193887 0.6662589587193 -0.770564488169 0.6662568490094 -0.770600553373
                  0.6662589587193 -0.770564488169 0.3325102041296 178.31426658194 0.6662028298160 -0.987310686564
                  0.6662568490094 -0.770600553373 0.6662028298160 -0.987310686564 0.3325080950364 178.31412012246
3.200000000000000 0.3325243711928 178.66720128409 0.6662458243691 -0.821415992500 0.6662446470643 -0.821424723109
                  0.6662458243691 -0.821415992500 0.3324870364524 178.20406061932 0.6661867023554 -1.052547603482
                  0.6662446470643 -0.821424723109 0.6661867023554 -1.052547603482 0.3324859738469 178.20400100554
3.400000000000000 0.3325024959703 178.58611171071 0.6662326605399 -0.872199635662 0.6662326601410 -0.872200957112
                  0.6662326605398 -0.872199635677 0.3324642895326 178.09414360117 0.6661707573074 -1.117697869627
                  0.6662326601411 -0.872200957136 0.6661707573075 -1.117697869635 0.3324642916065 178.09414093368
3.600000000000000 0.3324807400894 178.50524352713 0.6662195747314 -0.922921820762 0.6662205644557 -0.922924032659
                  0.6662195747314 -0.922921820762 0.3324420865810 177.98449158379 0.6661550711276 -1.182770401353
                  0.6662205644557 -0.922924032659 0.6661550711276 -1.182770401353 0.3324429768834 177.98450450509
3.800000000000000 0.3324586512341 178.42455869292 0.6662064067254 -0.973599712763 0.6662079341423 -0.973593514553
                  0.6662064067254 -0.973599712763 0.3324198613504 177.87502989952 0.6661392109141 -1.247791084664
                  0.6662079341423 -0.973593514553 0.6661392109141 -1.247791084664 0.3324214286031 177.87503042477
4.000000000000000 0.3324362950673 178.34405772757 0.6661931688450 -1.024232626793 0.6661948493879 -1.024211540379
                  0.6661931688450 -1.024232626793 0.3323976732974 177.76575797182 0.6661232138153 -1.312760165637
                  0.6661948493879 -1.024211540379 0.6661232138153 -1.312760165637 0.3323996661030 177.76573121696
4.200000000000000 0.3324137444185 178.26373906082 0.6661798724114 -1.074820309290 0.6661813990428 -1.074780734707
                  0.6661798724114 -1.074820309290 0.3323755763315 177.65667369529 0.6661071120175 -1.377678291619
                  0.6661813990428 -1.074780734707 0.6661071120175 -1.377678291619 0.3323777341316 177.65661565205
4.400000000000000 0.3323910774390 178.18359899781 0.6661665273029 -1.125362930844 0.6661676792753 -1.125304248076
                  0.6661665273029 -1.125362930844 0.3323536190372 177.54777362301 0.6660909333318 -1.442546416129
                  0.6661676792753 -1.125304248076 0.6660909333318 -1.442546416129 0.3323556989845 177.54768874044
4.600000000000001 0.3323683757541 178.10363173800 0.6661531414814 -1.175861068978 0.6661537922391 -1.175785779335
                  0.6661531414814 -1.175861068978 0.3323318447608 177.43905314168 0.6660747016953 -1.507365720282
                  0.6661537922391 -1.175785779335 0.6660747016953 -1.507365720282 0.3323336448182 177.43895178070
4.800000000000001 0.3323457226959 178.02382943984 0.6661397205272 -1.226315682171 0.6661398447909 -1.226229583118
                  0.6661397205272 -1.226315682171 0.3323102916372 177.33050663723 0.6660584376191 -1.572137547544
                  0.6661398447909 -1.226229583118 0.6660584376191 -1.572137547544 0.3323116702088 177.33040245755
5.000000000000000 0.3323232016702 177.94418232326 0.6661262672116 -1.276728076839 0.6661259472859 -1.276640464668
                  0.6661262672116 -1.276728076839 0.3322889926034 177.22212765206 0.6660421585996 -1.636863349661
                  0.6661259472859 -1.276640464668 0.6660421585996 -1.636863349661 0.3322898849960 177.22203498124
5.200000000000000 0.3323008946875 177.86467880196 0.6661127811251 -1.327099868982 0.6661122124666 -1.327023764121
                  0.6661127811251 -1.327099868982 0.3322679754290 177.11390903421 0.6660258795051 -1.701544642170
                  0.6661122124666 -1.327023764121 0.6660258795051 -1.701544642170 0.3322684074329 177.11384025974
5.400000000000000 0.3322788810746 177.78530563839 0.6660992583707 -1.377432942058 0.6660987544539 -1.377385332174
                  0.6660992583707 -1.377432942058 0.3322472627787 177.00584307777 0.6660096129417 -1.766182968321
                  0.6660987544539 -1.377385332174 0.6660096129417 -1.766182968321 0.3322473616462 177.00580609561
5.600000000000001 0.3322572363696 177.70604811476 0.6660856913273 -1.427729403045 0.6660856878443 -1.427731499515
                  0.6660856913273 -1.427729403038 0.3322268723177 176.89792165584 0.6659933696014 -1.830779870192
                  0.6660856878442 -1.427731499516 0.6659933696013 -1.830779870198 0.3322268754039 176.89791739579
5.800000000000001 0.3322358356017 177.62691551639 0.6660721160702 -1.477993341249 0.6660727672066 -1.478046703775
                  0.6660721160702 -1.477993341249 0.3322067582421 176.79013636054 0.6659771119381 -1.895338863614
                  0.6660727672066 -1.478046703775 0.6659771119381 -1.895338863614 0.3322068208140 176.79015941070
6.000000000000000 0.3322145111634 177.54792390277 0.6660585759596 -1.528227530786 0.6660596799451 -1.528313288542
                  0.6660585759596 -1.528227530786 0.3321868535842 176.68248348103 0.6659607834761 -1.959862394683
                  0.6660596799451 -1.528313288542 0.6659607834761 -1.959862394683 0.3321869683935 176.68252717898
6.200000000000000 0.3321932740928 177.46906794087 0.6660450716400 -1.578432274844 0.6660464431970 -1.578534624418
                  0.6660450716400 -1.578432274844 0.3321671472399 176.57496134804 0.6659443712513 -2.024350531194
                  0.6660464431970 -1.578534624418 0.6659443712513 -2.024350531194 0.3321673027572 176.57501857192
6.400000000000000 0.3321721396391 177.39034242365 0.6660316043721 -1.628607932973 0.6660330787927 -1.628713966451
                  0.6660316043721 -1.628607932973 0.3321476372042 176.46756787078 0.6659278701180 -2.088803523492
                  0.6660330787927 -1.628713966451 0.6659278701180 -2.088803523492 0.3321478190557 176.46763163082
6.600000000000001 0.3321511276218 177.31174209107 0.6660181762697 -1.678754936340 0.6660196132986 -1.678854533533
                  0.6660181762697 -1.678754936340 0.3321283307167 176.36030052809 0.6659112826486 -2.153221790173
                  0.6660196132986 -1.678854533533 0.6659112826486 -2.153221790173 0.3321285231809 176.36036444102
6.800000000000001 0.3321302625932 177.23326146393 0.6660047904679 -1.728873806783 0.6660060779325 -1.728959578355
                  0.6660047904679 -1.728873806783 0.3321092444344 176.25315630779 0.6658946191289 -2.217605927897
                  0.6660060779325 -1.728959578355 0.6658946191289 -2.217605927897 0.3321094319291 176.25321496863
7.000000000000000 0.3321095738335 177.15489468963 0.6659914512090 -1.778965178811 0.6659925083894 -1.779032447713
                  0.6659914512090 -1.778965178811 0.3320904045706 176.14613158864 0.6658778975981 -2.281956747668
                  0.6659925083894 -1.779032447713 0.6658778975981 -2.281956747668 0.3320905731036 176.14618086051
7.200000000000000 0.3320890952104 177.07663540070 0.6659781638338 -1.829029824268 0.6659789446229 -1.829076632832
                  0.6659781638338 -1.829029824268 0.3320718469425 176.03922196938 0.6658611438833 -2.346275335481
                  0.6659789446229 -1.829076632832 0.6658611438833 -2.346275335481 0.3320719855516 176.03925921375
7.400000000000000 0.3320688649755 176.99847659089 0.6659649346345 -1.879068680951 0.6659654307016 -1.879095805800
                  0.6659649346345 -1.879068680951 0.3320536169163 175.93242205950 0.6658443916588 -2.410563128368
                  0.6659654307016 -1.879095805800 0.6658443916588 -2.410563128368 0.3320537192839 175.93244634237
7.600000000000001 0.3320489259375 176.92041051883 0.6659517701565 -1.929082887915 0.6659520155988 -1.929093834989
                  0.6659517701565 -1.929082887915 0.3320357696271 175.82572525613 0.6658276833223 -2.474821991118
                  0.6659520155988 -1.929093834989 0.6658276833223 -2.474821991118 0.3320358373221 175.82573759685
7.800000000000001 0.3320293278563 176.84242765074 0.6659386743112 -1.979073328326 0.6659387583320 -1.979075773402
                  0.6659386743112 -1.979073328326 0.3320183722871 175.71912253466 0.6658110750701 -2.539055279437
                  0.6659387583320 -1.979075773402 0.6658110750701 -2.539055279437 0.3320184269760 175.71912331818
8.000000000000000 0.3320100972338 176.76451923484 0.6659256773053 -2.029042138454 0.6659256690734 -2.029045059781
                  0.6659256773053 -2.029042138446 0.3320014743230 175.61260474350 0.6657945777685 -2.603265204782
                  0.6659256690733 -2.029045059773 0.6657945777685 -2.603265204782 0.3320014792999 175.61259876086
8.200000000000001 0.3319912285489 176.68668677821 0.6659127555809 -2.078992059121 0.6659127468793 -2.078995046924
                  0.6659127555810 -2.078992059116 0.3319850695783 175.50616456315 0.6657782182442 -2.667454225181
                  0.6659127468793 -2.078995046916 0.6657782182442 -2.667454225178 0.3319850747384 175.50615844009
8.400000000000000 0.3319726444476 176.60893293255 0.6658999076535 -2.128922083760 0.6658998984712 -2.128925137575
                  0.6658999076535 -2.128922083754 0.3319690499642 175.39980857449 0.6657619024444 -2.731620031581
                  0.6658998984712 -2.128925137572 0.6657619024445 -2.731620031585 0.3319690553119 175.39980231169
8.600000000000001 0.3319543454938 176.53125447936 0.6658871339291 -2.178833041098 0.6658871242553 -2.178836160416
                  0.6658871339291 -2.178833041103 0.3319534159656 175.29353342573 0.6657456309411 -2.795763556245
                  0.6658871242553 -2.178836160416 0.6657456309411 -2.795763556241 0.3319534215045 175.29352702406
8.800000000000001 0.3319363317083 176.45364836967 0.6658744345784 -2.228725717062 0.6658744244025 -2.228728901375
                  0.6658744345784 -2.228725717060 0.3319381674129 175.18733595343 0.6657294039479 -2.859885678131
                  0.6658744244025 -2.228728901375 0.6657294039479 -2.859885678132 0.3319381731474 175.18732941360
9.000000000000000 0.3319186026120 176.37611171569 0.6658618093886 -2.278600857254 0.6658617987000 -2.278604106060
                  0.6658618093885 -2.278600857252 0.3319233036903 175.08121314796 0.6657132213351 -2.923987239063
                  0.6658617986999 -2.278604106062 0.6657132213351 -2.923987239067 0.3319233096249 175.08120647079
9.200000000000001 0.3319011572493 176.29864176545 0.6658492580720 -2.328459172060 0.6658492468605 -2.328462484798
                  0.6658492580720 -2.328459172069 0.3319088236295 174.97516215934 0.6656970828149 -2.988069032612
                  0.6658492468605 -2.328462484802 0.6656970828149 -2.988069032607 0.3319088297687 174.97515534579
9.399999999999991 0.3318839943188 176.22123592398 0.6658367800500 -2.378301332546 0.6658367683056 -2.378304708662
                  0.6658367800500 -2.378301332535 0.3318947257464 174.86918030622 0.6656809878294 -3.052131806745
                  0.6658367683056 -2.378304708643 0.6656809878294 -3.052131806739 0.3318947320950 174.86917335714
9.599999999999991 0.3318671122342 176.14389171868 0.6658243745908 -2.428127978506 0.6658243623035 -2.428131417500
                  0.6658243745908 -2.428127978512 0.3318810081991 174.76326504975 0.6656649355896 -3.116176267336
                  0.6658243623036 -2.428131417502 0.6656649355896 -3.116176267331 0.3318810147618 174.76325796595
9.799999999999992 0.3318505090941 176.06660681490 0.6658120408540 -2.477939714678 0.6658120280143 -2.477943215883
                  0.6658120408540 -2.477939714677 0.3318676689060 174.65741391582 0.6656489252482 -3.180203120867
                  0.6658120280143 -2.477943215882 0.6656489252482 -3.180203120868 0.3318676756878 174.65740669839
9.999999999999991 0.3318341827574 175.98937899804 0.6657997778632 -2.527737115552 0.6657997644619 -2.527740678481
                  0.6657997778633 -2.527737115557 0.3318547054798 174.55162466197 0.6656329557721 -3.244212987469
                  0.6657997644619 -2.527740678484 0.6656329557721 -3.244212987467 0.3318547124859 174.55161731174
10.20000000000000 0.3318181309518 175.91220616667 0.6657875845820 -2.577520726746 0.6657875706094 -2.577524350684
                  0.6657875845820 -2.577520726752 0.3318421153671 174.44589511020 0.6656170260149 -3.308206481604
                  0.6657875706094 -2.577524350693 0.6656170260149 -3.308206481605 0.3318421226028 174.44588762836
10.40000000000000 0.3318023512470 175.83508633156 0.6657754598176 -2.627291065326 0.6657754452651 -2.627294749788
                  0.6657754598176 -2.627291065322 0.3318298958793 174.34022319587 0.6656011346901 -3.372184188635
                  0.6657754452651 -2.627294749787 0.6656011346901 -3.372184188635 0.3318299033502 174.34021558320
10.60000000000000 0.3317868410284 175.75801760229 0.6657634023801 -2.677048623585 0.6657633872388 -2.677052367866
                  0.6657634023802 -2.677048623594 0.3318180442159 174.23460699850 0.6655852805896 -3.436146645443
                  0.6657633872388 -2.677052367867 0.6655852805896 -3.436146645437 0.3318180519274 174.23459925627
10.80000000000000 0.3317715975953 175.68099819149 0.6657514109529 -2.726793867170 0.6657513952141 -2.726797670674
                  0.6657514109529 -2.726793867173 0.3318065573870 174.12904466477 0.6655694622620 -3.500094379860
                  0.6657513952142 -2.726797670678 0.6655694622620 -3.500094379860 0.3318065653451 174.12903679392
11.00000000000000 0.3317566182710 175.60402640605 0.6657394842604 -2.776527238548 0.6657394679161 -2.776531100705
                  0.6657394842604 -2.776527238544 0.3317954324149 174.02353445624 0.6655536782849 -3.564027885632
                  0.6657394679161 -2.776531100702 0.6655536782850 -3.564027885634 0.3317954406255 174.02352645776
11.20000000000000 0.3317419001440 175.52710062621 0.6657276209276 -2.826249160763 0.6657276039696 -2.826253080919
                  0.6657276209276 -2.826249160766 0.3317846661738 173.91807473450 0.6655379272234 -3.627947623187
                  0.6657276039696 -2.826253080925 0.6655379272234 -3.627947623190 0.3317846746432 173.91806660951
11.40000000000000 0.3317274403962 175.45021933461 0.6657158196397 -2.875960031286 0.6657158020600 -2.875964008809
                  0.6657158196397 -2.875960031287 0.3317742555402 173.81266390374 0.6655222075939 -3.691854056763
                  0.6657158020600 -2.875964008808 0.6655222075939 -3.691854056762 0.3317742642745 173.81265565339
11.60000000000000 0.3317132361384 175.37338107450 0.6657040789747 -2.925660232337 0.6657040607656 -2.925664266589
                  0.6657040789747 -2.925660232334 0.3317641974349 173.70730051195 0.6655065179364 -3.755747593535
                  0.6657040607656 -2.925664266588 0.6655065179364 -3.755747593535 0.3317642064406 173.70729213729
11.80000000000000 0.3316992844134 175.29658447111 0.6656923975074 -2.975350124923 0.6656923786615 -2.975354215301
                  0.6656923975075 -2.975350124925 0.3317544885973 173.60198314833 0.6654908566610 -3.819628639183
                  0.6656923786615 -2.975354215314 0.6654908566610 -3.819628639195 0.3317544978810 173.60197465040
12.00000000000000 0.3316855823827 175.21982821468 0.6656807738928 -3.025030053816 0.6656807544029 -3.025034199737
                  0.6656807738929 -3.025030053826 0.3317451258805 173.49671045911 0.6654752222467 -3.883497586681
                  0.6656807544029 -3.025034199745 0.6654752222467 -3.883497586678 0.3317451354492 173.49670183900
12.20000000000000 0.3316721290454 175.14311379118 0.6656692001804 -3.074700344228 0.6656691962342 -3.074702933983
                  0.6656692001804 -3.074700344228 0.3317361073139 173.39148184936 0.6654596136622 -3.947354738694
                  0.6656691962342 -3.074702933983 0.6654596136622 -3.947354738694 0.3317361104894 173.39147555802
12.40000000000000 0.3316589234523 175.06644003093 0.6656576805073 -3.124361593516 0.6656577078771 -3.124359850765
                  0.6656576805073 -3.124361593516 0.3317274263283 173.28629625477 0.6654440300732 -4.011200045231
                  0.6656577078771 -3.124359850765 0.6654440300732 -4.011200045231 0.3317274212748 173.28629711756
12.60000000000000 0.3316459585479 174.98980134909 0.6656462164895 -3.174013823869 0.6656462683931 -3.174008795442
                  0.6656462164895 -3.174013823869 0.3317190825045 173.18115119417 0.6654284682069 -4.075034466428
                  0.6656462683931 -3.174008795442 0.6654284682069 -4.075034466428 0.3317190727723 173.18115640726
12.80000000000000 0.3316332258477 174.91319291516 0.6656348121675 -3.223657034088 0.6656348566522 -3.223653106019
                  0.6656348121675 -3.223657034088 0.3317110733413 173.07604470287 0.6654129256243 -4.138858634498
                  0.6656348566522 -3.223653106019 0.6654129256243 -4.138858634498 0.3317110674167 173.07604701714
13.00000000000000 0.3316207158084 174.83661073807 0.6656234743370 -3.273291180676 0.6656234515236 -3.273295594692
                  0.6656234743370 -3.273291180676 0.3317033942529 172.97097535511 0.6653974005356 -4.202672872429
                  0.6656234515236 -3.273295594688 0.6653974005355 -4.202672872425 0.3317034053526 172.97096614098
13.20000000000000 0.3316084553445 174.76006061109 0.6656121856005 -3.322915978962 0.6656120769817 -3.322933820467
                  0.6656121856005 -3.322915978962 0.3316960670868 172.86594891273 0.6653818890742 -4.266476365745
                  0.6656120769817 -3.322933820467 0.6653818890742 -4.266476365745 0.3316960744925 172.86591402334
13.40000000000000 0.3315964686747 174.68354932133 0.6656009443955 -3.372531965859 0.6656007723671 -3.372562192969
                  0.6656009443955 -3.372531965859 0.3316890971762 172.76097008407 0.6653663918007 -4.330267474353
                  0.6656007723671 -3.372562192969 0.6653663918007 -4.330267474353 0.3316890651702 172.76090284450
13.60000000000000 0.3315847434105 174.60707455002 0.6655897465989 -3.422139690815 0.6655895348288 -3.422181163793
                  0.6655897465989 -3.422139690815 0.3316824756710 172.65603463176 0.6653509088500 -4.394047403668
                  0.6655895348288 -3.422181163793 0.6653509088500 -4.394047403668 0.3316823759728 172.65592946147
13.80000000000000 0.3315732680818 174.53063430562 0.6655785911862 -3.471739675405 0.6655783617659 -3.471790955633
                  0.6655785911862 -3.471739675405 0.3316761924490 172.55113905534 0.6653354402159 -4.457817008638
                  0.6655783617659 -3.471790955633 0.6653354402159 -4.457817008638 0.3316760052036 172.55099272248
14.00000000000000 0.3315620321725 174.45422683094 0.6655674770926 -3.521332375127 0.6655672504356 -3.521391800441
                  0.6655674770926 -3.521332375127 0.3316702380062 172.44628035125 0.6653199854534 -4.521577020318
                  0.6655672504356 -3.521391800441 0.6653199854534 -4.521577020318 0.3316699507276 172.44609163569
14.20000000000000 0.3315510260700 174.37785057514 0.6655564032354 -3.570918186170 0.6655561979639 -3.570983940133
                  0.6655564032354 -3.570918186170 0.3316646034777 172.34145595851 0.6653045437634 -4.585328060144
                  0.6655561979639 -3.570983940133 0.6653045437634 -4.585328060144 0.3316642100629 172.34122534670
14.40000000000000 0.3315402410148 174.30150416843 0.6655453685333 -3.620497451593 0.6655452013570 -3.620567627170
                  0.6655453685333 -3.620497451593 0.3316592806487 172.23666370923 0.6652891140668 -4.649070652912
                  0.6655452013570 -3.620567627170 0.6652891140668 -4.649070652912 0.3316587804621 172.23639311847
14.60000000000000 0.3315296690502 174.22518639917 0.6655343719228 -3.670070466952 0.6655342575103 -3.670143124995
                  0.6655343719228 -3.670070466952 0.3316542619587 172.13190178356 0.6652736950697 -4.712805238563
                  0.6655342575103 -3.670143124995 0.6652736950697 -4.712805238563 0.3316536589819 172.13159431307
14.80000000000000 0.3315193029742 174.14889619326 0.6655234123723 -3.719637485440 0.6655233632182 -3.719710708373
                  0.6655234123723 -3.719637485440 0.3316495404987 172.02716866877 0.6652582853191 -4.776532182898
                  0.6655233632182 -3.719710708373 0.6652582853191 -4.776532182898 0.3316488425457 172.02682837537
15.00000000000000 0.3315091362910 174.07263259552 0.6655124888944 -3.769198722569 0.6655125151819 -3.769270663638
                  0.6655124888944 -3.769198722569 0.3316451100039 171.92246312193 0.6652428832524 -4.840251787300
                  0.6655125151819 -3.769270663638 0.6652428832524 -4.840251787300 0.3316443279969 171.92209481841
15.20000000000000 0.3314991631651 173.99639475289 0.6655016005562 -3.818754360446 0.6655017100175 -3.818823288858
                  0.6655016005562 -3.818754360446 0.3316409648416 171.81778413610 0.6652274872397 -4.903964297563
                  0.6655017100175 -3.818823288858 0.6652274872397 -4.903964297563 0.3316401121465 171.81739321021
15.40000000000000 0.3314893783759 173.92018189931 0.6654907464874 -3.868304551670 0.6654909442631 -3.868368893936
                  0.6654907464874 -3.868304551670 0.3316370999958 171.71313090948 0.6652120956201 -4.967669911898
                  0.6654909442631 -3.868368893936 0.6652120956201 -4.967669911898 0.3316361918136 171.71272316195
15.60000000000000 0.3314797772749 173.84399334214 0.6654799258881 -3.917849422886 0.6654802143855 -3.917907800651
                  0.6654799258881 -3.917849422886 0.3316335110489 171.60850281754 0.6651967067342 -5.031368788195
                  0.6654802143855 -3.917907800651 0.6651967067342 -5.031368788195 0.3316325638612 171.60808431741
15.80000000000000 0.3314703557440 173.76782844993 0.6654691380344 -3.967389078032 0.6654695167868 -3.967440342649
                  0.6654691380344 -3.967389078032 0.3316301941624 171.50389938764 0.6651813189503 -5.095061050603
                  0.6654695167868 -3.967440342649 0.6651813189503 -5.095061050603 0.3316292252269 171.50347634352
16.00000000000000 0.3314611101557 173.69168664143 0.6654583822836 -4.016923601290 0.6654588478101 -4.016966865393
                  0.6654583822836 -4.016923601290 0.3316271460541 171.39932027609 0.6651659306886 -5.158746795486
                  0.6654588478101 -4.016966865393 0.6651659306886 -5.158746795486 0.3316261729496 171.39889892189
16.20000000000000 0.3314520373353 173.61556737577 0.6654476580780 -4.066453059784 0.6654482037452 -4.066487726082
                  0.6654476580780 -4.066453059784 0.3316243639761 171.29476524732 0.6651505404402 -5.222426096817
                  0.6654482037452 -4.066487726082 0.6651505404402 -5.222426096817 0.3316234041924 171.29435174126
16.40000000000000 0.3314431345245 173.53947014369 0.6654369649481 -4.115977506038 0.6654375808334 -4.116003293536
                  0.6654369649481 -4.115977506038 0.3316218456904 171.19023415508 0.6651351467843 -5.286099011049
                  0.6654375808334 -4.116003293536 0.6651351467843 -5.286099011049 0.3316209162617 171.18983449084
16.60000000000000 0.3314343993475 173.46339445964 0.6654263025149 -4.165496980216 0.6654269752731 -4.165513948055
                  0.6654263025149 -4.165496980216 0.3316195894456 171.08572692545 0.6651197484021 -5.349765581516
                  0.6654269752731 -4.165513948055 0.6651197484021 -5.349765581516 0.3316187066241 171.08534685430
16.80000000000000 0.3314258297781 173.38733985481 0.6654156704921 -4.215011512159 0.6654163832236 -4.215020081265
                  0.6654156704921 -4.215011512159 0.3316175939520 170.98124354149 0.6651043440882 -5.413425842409
                  0.6654163832236 -4.215020081265 0.6651043440882 -5.413425842409 0.3316167729203 170.98088850450
17.00000000000000 0.3314174241093 173.31130587093 0.6654050686868 -4.264521123245 0.6654058008099 -4.264522095943
                  0.6654050686868 -4.264521123245 0.3316158583577 170.87678402942 0.6650889327604 -5.477079822351
                  0.6654058008099 -4.264522095943 0.6650889327604 -5.477079822351 0.3316151129769 170.87645909881
17.20000000000000 0.3314091809243 173.23529205470 0.6653944970008 -4.314025828079 0.6653952241264 -4.314020405827
                  0.6653944970008 -4.314025828079 0.3316143822243 170.77234844623 0.6650735134671 -5.540727547614
                  0.6653952241264 -4.314020405827 0.6650735134671 -5.540727547614 0.3316137248156 170.77205827504